REMARK  Name = /content/drive/MyDrive/Parkinson/P3_fixed.pdb
REMARK  36 active torsions:
REMARK  status: ('A' for Active; 'I' for Inactive)
REMARK    1  A    between atoms: N_1  and  CA_5
REMARK    2  A    between atoms: CA_5  and  C_7
REMARK    3  A    between atoms: CA_5  and  CB_8
REMARK    4  A    between atoms: CB_8  and  CG_12
REMARK    5  A    between atoms: CG_12  and  CD_15
REMARK    6  A    between atoms: N_20  and  CA_22
REMARK    7  A    between atoms: CA_22  and  C_24
REMARK    8  A    between atoms: CA_22  and  CB_25
REMARK    9  A    between atoms: CB_25  and  CG_29
REMARK   10  A    between atoms: CG_29  and  CD_32
REMARK   11  A    between atoms: N_37  and  CA_39
REMARK   12  A    between atoms: CA_39  and  C_41
REMARK   13  A    between atoms: CA_39  and  CB_42
REMARK   14  A    between atoms: CB_42  and  CG_46
REMARK   15  A    between atoms: CG_46  and  CD_49
REMARK   16  A    between atoms: CD_49  and  CE_52
REMARK   17  A    between atoms: CE_52  and  NZ_55
REMARK   18  A    between atoms: N_59  and  CA_61
REMARK   19  A    between atoms: CA_61  and  C_63
REMARK   20  A    between atoms: CA_61  and  CB_64
REMARK   21  A    between atoms: CB_64  and  CG2_67
REMARK   22  A    between atoms: CB_64  and  OG1_71
REMARK   23  A    between atoms: N_73  and  CA_75
REMARK   24  A    between atoms: CA_75  and  C_78
REMARK   25  A    between atoms: N_80  and  CA_82
REMARK   26  A    between atoms: CA_82  and  C_84
REMARK   27  A    between atoms: CA_82  and  CB_85
REMARK   28  A    between atoms: CB_85  and  CG1_88
REMARK   29  A    between atoms: CB_85  and  CG2_92
REMARK   30  A    between atoms: N_96  and  CA_98
REMARK   31  A    between atoms: CA_98  and  C_101
REMARK   32  A    between atoms: N_103  and  CA_105
REMARK   33  A    between atoms: CA_105  and  C_107
REMARK   34  A    between atoms: CA_105  and  CB_108
REMARK   35  A    between atoms: C_107  and  O_111
REMARK   36  A    between atoms: CB_108  and  CG_112
REMARK                            x       y       z     vdW  Elec       q    Type
REMARK                         _______ _______ _______ _____ _____    ______ ____
ROOT
ATOM      1  C   LYS A   3      -4.198   3.766   4.117  0.00  0.00    +0.000 C 
ATOM      2  O   LYS A   3      -5.051   3.600   3.248  0.00  0.00    +0.000 OA
ATOM      3  N   THR A   4      -3.436   4.850   4.204  0.00  0.00    +0.000 N 
ATOM      4  H   THR A   4      -2.872   4.994   5.030  0.00  0.00    +0.000 HD
ENDROOT
BRANCH   3   5
ATOM      5  CA  THR A   4      -3.424   5.904   3.185  0.00  0.00    +0.000 C 
BRANCH   5   6
ATOM      6  C   THR A   4      -2.790   5.328   1.925  0.00  0.00    +0.000 C 
ATOM      7  O   THR A   4      -1.576   5.154   1.842  0.00  0.00    +0.000 OA
ATOM      8  N   GLY A   5      -3.628   4.908   0.982  0.00  0.00    +0.000 N 
ATOM      9  H   GLY A   5      -4.622   4.946   1.157  0.00  0.00    +0.000 HD
BRANCH   8  10
ATOM     10  CA  GLY A   5      -3.190   4.427  -0.317  0.00  0.00    +0.000 C 
BRANCH  10  11
ATOM     11  C   GLY A   5      -3.145   5.571  -1.306  0.00  0.00    +0.000 C 
ATOM     12  O   GLY A   5      -4.201   5.958  -1.777  0.00  0.00    +0.000 OA
ATOM     13  N   VAL A   6      -1.950   6.047  -1.647  0.00  0.00    +0.000 N 
ATOM     14  H   VAL A   6      -1.169   5.868  -1.033  0.00  0.00    +0.000 HD
BRANCH  13  15
ATOM     15  CA  VAL A   6      -1.607   6.345  -3.041  0.00  0.00    +0.000 C 
BRANCH  15  16
ATOM     16  C   VAL A   6      -0.085   6.390  -3.170  0.00  0.00    +0.000 C 
ATOM     17  O   VAL A   6       0.576   7.249  -2.596  0.00  0.00    +0.000 OA
ATOM     18  N   GLY A   7       0.453   5.396  -3.872  0.00  0.00    +0.000 N 
ATOM     19  H   GLY A   7      -0.179   4.714  -4.268  0.00  0.00    +0.000 HD
BRANCH  18  20
ATOM     20  CA  GLY A   7       1.747   5.481  -4.528  0.00  0.00    +0.000 C 
BRANCH  20  21
ATOM     21  C   GLY A   7       1.499   5.832  -5.988  0.00  0.00    +0.000 C 
ATOM     22  O   GLY A   7       0.733   5.138  -6.659  0.00  0.00    +0.000 OA
ATOM     23  N   ASN A   8       2.118   6.918  -6.429  0.00  0.00    +0.000 N 
ATOM     24  H   ASN A   8       2.561   7.512  -5.742  0.00  0.00    +0.000 HD
BRANCH  23  25
ATOM     25  CA  ASN A   8       2.830   6.988  -7.702  0.00  0.00    +0.000 C 
BRANCH  25  26
ATOM     26  C   ASN A   8       4.257   7.444  -7.371  0.00  0.00    +0.000 C 
ATOM     27  OXT ASN A   8       5.198   6.901  -7.975  0.00  0.00    +0.000 OA
BRANCH  26  28
ATOM     28  O   ASN A   8       4.361   8.270  -6.435  0.00  0.00    +0.000 OA
ATOM     29  H   ASN A   8       3.591   8.628  -6.038  0.00  0.00    +0.000 HD
ENDBRANCH  26  28
ENDBRANCH  25  26
BRANCH  25  30
ATOM     30  CB  ASN A   8       2.081   7.924  -8.675  0.00  0.00    +0.000 C 
BRANCH  30  31
ATOM     31  CG  ASN A   8       2.356   7.627 -10.143  0.00  0.00    +0.000 C 
ATOM     32  ND2 ASN A   8       2.119   8.571 -11.021  0.00  0.00    +0.000 N 
ATOM     33 HD21 ASN A   8       2.241   8.284 -11.981  0.00  0.00    +0.000 HD
ATOM     34 HD22 ASN A   8       1.859   9.505 -10.737  0.00  0.00    +0.000 HD
ATOM     35  OD1 ASN A   8       2.653   6.523 -10.561  0.00  0.00    +0.000 OA
ENDBRANCH  30  31
ENDBRANCH  25  30
ENDBRANCH  23  25
ENDBRANCH  20  21
ENDBRANCH  18  20
ENDBRANCH  15  16
BRANCH  15  36
ATOM     36  CB  VAL A   6      -2.242   7.636  -3.631  0.00  0.00    +0.000 C 
ATOM     37  CG1 VAL A   6      -3.038   7.208  -4.877  0.00  0.00    +0.000 C 
ATOM     38  CG2 VAL A   6      -3.131   8.504  -2.727  0.00  0.00    +0.000 C 
ENDBRANCH  15  36
ENDBRANCH  13  15
ENDBRANCH  10  11
ENDBRANCH   8  10
ENDBRANCH   5   6
BRANCH   5  39
ATOM     39  CB  THR A   4      -2.668   7.146   3.675  0.00  0.00    +0.000 C 
ATOM     40  CG2 THR A   4      -2.782   8.312   2.694  0.00  0.00    +0.000 C 
BRANCH  39  41
ATOM     41  OG1 THR A   4      -3.213   7.551   4.910  0.00  0.00    +0.000 OA
ATOM     42  HG1 THR A   4      -2.779   8.370   5.162  0.00  0.00    +0.000 HD
ENDBRANCH  39  41
ENDBRANCH   5  39
ENDBRANCH   3   5
BRANCH   1  43
ATOM     43  CA  LYS A   3      -3.982   2.701   5.181  0.00  0.00    +0.000 C 
BRANCH  43  46
ATOM     44  C   GLN A   2      -5.110   3.635   7.174  0.00  0.00    +0.000 C 
ATOM     45  O   GLN A   2      -4.097   4.195   7.580  0.00  0.00    +0.000 OA
ATOM     46  N   LYS A   3      -5.105   2.818   6.111  0.00  0.00    +0.000 N 
ATOM     47  H   LYS A   3      -5.975   2.385   5.837  0.00  0.00    +0.000 HD
BRANCH  44  48
ATOM     48  CA  GLN A   2      -6.400   3.675   7.992  0.00  0.00    +0.000 C 
BRANCH  48  51
ATOM     49  C   GLN A   1      -6.983   1.860   9.481  0.00  0.00    +0.000 C 
ATOM     50  O   GLN A   1      -8.152   1.880   9.142  0.00  0.00    +0.000 OA
ATOM     51  N   GLN A   2      -6.141   2.829   9.153  0.00  0.00    +0.000 N 
ATOM     52  H   GLN A   2      -5.198   2.866   9.514  0.00  0.00    +0.000 HD
BRANCH  49  53
ATOM     53  CA  GLN A   1      -6.469   0.719  10.336  0.00  0.00    +0.000 C 
BRANCH  53  54
ATOM     54  N   GLN A   1      -6.628   1.088  11.757  0.00  0.00    +0.000 N 
ATOM     55  H   GLN A   1      -6.437   0.294  12.351  0.00  0.00    +0.000 HD
ATOM     56  H2  GLN A   1      -7.579   1.390  11.913  0.00  0.00    +0.000 HD
ATOM     57  H3  GLN A   1      -6.010   1.850  11.997  0.00  0.00    +0.000 HD
ENDBRANCH  53  54
BRANCH  53  58
ATOM     58  CB  GLN A   1      -7.243  -0.574  10.010  0.00  0.00    +0.000 C 
BRANCH  58  59
ATOM     59  CG  GLN A   1      -6.593  -1.848  10.577  0.00  0.00    +0.000 C 
BRANCH  59  60
ATOM     60  CD  GLN A   1      -7.468  -3.072  10.316  0.00  0.00    +0.000 C 
ATOM     61  NE2 GLN A   1      -6.906  -4.226  10.057  0.00  0.00    +0.000 N 
ATOM     62 HE21 GLN A   1      -5.905  -4.358  10.041  0.00  0.00    +0.000 HD
ATOM     63 HE22 GLN A   1      -7.550  -4.986   9.889  0.00  0.00    +0.000 HD
ATOM     64  OE1 GLN A   1      -8.678  -2.998  10.356  0.00  0.00    +0.000 OA
ENDBRANCH  59  60
ENDBRANCH  58  59
ENDBRANCH  53  58
ENDBRANCH  49  53
ENDBRANCH  48  51
BRANCH  48  65
ATOM     65  CB  GLN A   2      -6.852   5.093   8.402  0.00  0.00    +0.000 C 
BRANCH  65  66
ATOM     66  CG  GLN A   2      -8.246   5.056   9.057  0.00  0.00    +0.000 C 
BRANCH  66  67
ATOM     67  CD  GLN A   2      -8.803   6.430   9.405  0.00  0.00    +0.000 C 
ATOM     68  NE2 GLN A   2      -9.999   6.739   8.963  0.00  0.00    +0.000 N 
ATOM     69 HE21 GLN A   2     -10.339   7.658   9.210  0.00  0.00    +0.000 HD
ATOM     70 HE22 GLN A   2     -10.523   6.072   8.416  0.00  0.00    +0.000 HD
ATOM     71  OE1 GLN A   2      -8.200   7.213  10.114  0.00  0.00    +0.000 OA
ENDBRANCH  66  67
ENDBRANCH  65  66
ENDBRANCH  48  65
ENDBRANCH  44  48
ENDBRANCH  43  46
BRANCH  43  72
ATOM     72  CB  LYS A   3      -3.893   1.275   4.602  0.00  0.00    +0.000 C 
BRANCH  72  73
ATOM     73  CG  LYS A   3      -2.711   1.114   3.624  0.00  0.00    +0.000 C 
BRANCH  73  74
ATOM     74  CD  LYS A   3      -2.497  -0.360   3.227  0.00  0.00    +0.000 C 
BRANCH  74  75
ATOM     75  CE  LYS A   3      -1.195  -0.546   2.427  0.00  0.00    +0.000 C 
BRANCH  75  76
ATOM     76  NZ  LYS A   3      -1.413  -0.527   0.956  0.00  0.00    +0.000 N 
ATOM     77  HZ1 LYS A   3      -1.801  -1.402   0.634  0.00  0.00    +0.000 HD
ATOM     78  HZ2 LYS A   3      -0.537  -0.376   0.477  0.00  0.00    +0.000 HD
ATOM     79  HZ3 LYS A   3      -2.044   0.218   0.695  0.00  0.00    +0.000 HD
ENDBRANCH  75  76
ENDBRANCH  74  75
ENDBRANCH  73  74
ENDBRANCH  72  73
ENDBRANCH  43  72
ENDBRANCH   1  43
TORSDOF 33
